##############################################################################
###               Entry exported from Match! User Database                 ###
##############################################################################
###                           Data published by:                           ###
###                                                                        ###
###               COD (Crystallography Open Database)
##############################################################################
data_1100108
_citation_title  'Fe-5Al-20Ni(5to)0.1'
_chemical_formula_sum  'Fe'
_chemical_name_common  'alfa-Fe'
_symmetry_space_group_name_H-M 'I m -3 m'
_space_group_IT_number 229
_space_group_crystal_system 'cubic'
loop_
_symmetry_equiv_pos_as_xyz
   'x, y, z'
   'x+0.5, y+0.5, z+0.5'
   '-y, x, z'
   '-y+0.5, x+0.5, z+0.5'
   '-x, -y, z'
   '-x+0.5, -y+0.5, z+0.5'
   'y, -x, z'
   'y+0.5, -x+0.5, z+0.5'
   'x, -z, y'
   'x+0.5, -z+0.5, y+0.5'
   'x, -y, -z'
   'x+0.5, -y+0.5, -z+0.5'
   'x, z, -y'
   'x+0.5, z+0.5, -y+0.5'
   'z, y, -x'
   'z+0.5, y+0.5, -x+0.5'
   '-x, y, -z'
   '-x+0.5, y+0.5, -z+0.5'
   '-z, y, x'
   '-z+0.5, y+0.5, x+0.5'
   'z, x, y'
   'z+0.5, x+0.5, y+0.5'
   'y, z, x'
   'y+0.5, z+0.5, x+0.5'
   '-y, -z, x'
   '-y+0.5, -z+0.5, x+0.5'
   'z, -x, -y'
   'z+0.5, -x+0.5, -y+0.5'
   '-y, z, -x'
   '-y+0.5, z+0.5, -x+0.5'
   '-z, -x, y'
   '-z+0.5, -x+0.5, y+0.5'
   '-z, x, -y'
   '-z+0.5, x+0.5, -y+0.5'
   'y, -z, -x'
   'y+0.5, -z+0.5, -x+0.5'
   'y, x, -z'
   'y+0.5, x+0.5, -z+0.5'
   '-y, -x, -z'
   '-y+0.5, -x+0.5, -z+0.5'
   '-x, z, y'
   '-x+0.5, z+0.5, y+0.5'
   '-x, -z, -y'
   '-x+0.5, -z+0.5, -y+0.5'
   'z, -y, x'
   'z+0.5, -y+0.5, x+0.5'
   '-z, -y, -x'
   '-z+0.5, -y+0.5, -x+0.5'
   '-x, -y, -z'
   '-x+0.5, -y+0.5, -z+0.5'
   'y, -x, -z'
   'y+0.5, -x+0.5, -z+0.5'
   'x, y, -z'
   'x+0.5, y+0.5, -z+0.5'
   '-y, x, -z'
   '-y+0.5, x+0.5, -z+0.5'
   '-x, z, -y'
   '-x+0.5, z+0.5, -y+0.5'
   '-x, y, z'
   '-x+0.5, y+0.5, z+0.5'
   '-x, -z, y'
   '-x+0.5, -z+0.5, y+0.5'
   '-z, -y, x'
   '-z+0.5, -y+0.5, x+0.5'
   'x, -y, z'
   'x+0.5, -y+0.5, z+0.5'
   'z, -y, -x'
   'z+0.5, -y+0.5, -x+0.5'
   '-z, -x, -y'
   '-z+0.5, -x+0.5, -y+0.5'
   '-y, -z, -x'
   '-y+0.5, -z+0.5, -x+0.5'
   'y, z, -x'
   'y+0.5, z+0.5, -x+0.5'
   '-z, x, y'
   '-z+0.5, x+0.5, y+0.5'
   'y, -z, x'
   'y+0.5, -z+0.5, x+0.5'
   'z, x, -y'
   'z+0.5, x+0.5, -y+0.5'
   'z, -x, y'
   'z+0.5, -x+0.5, y+0.5'
   '-y, z, x'
   '-y+0.5, z+0.5, x+0.5'
   '-y, -x, z'
   '-y+0.5, -x+0.5, z+0.5'
   'y, x, z'
   'y+0.5, x+0.5, z+0.5'
   'x, -z, -y'
   'x+0.5, -z+0.5, -y+0.5'
   'x, z, y'
   'x+0.5, z+0.5, y+0.5'
   '-z, y, -x'
   '-z+0.5, y+0.5, -x+0.5'
   'z, y, x'
   'z+0.5, y+0.5, x+0.5'
_cell_length_a        2.8680
_cell_length_b        2.8680
_cell_length_c        2.8680
_cell_angle_alpha    90.000
_cell_angle_beta     90.000
_cell_angle_gamma    90.000
_cell_formula_units_Z 2
loop_
_atom_site_label
_atom_site_fract_x
_atom_site_fract_y
_atom_site_fract_z
_atom_site_occupancy
_atom_site_B_iso_or_equiv
fe      0.000   0.000   0.000    1.00000    1.000
_cell_measurement_wavelength    1.541874
_cell_measurement_radiation   'x-rays'
_exptl_crystal_density_diffrn    7.862000
loop_
_pd_peak_d_spacing
_pd_peak_calc_intensity_net
     2.027995       1000.00
     1.434009        129.74
     1.170864        219.88
     1.013998         66.83
##############################################################################
###                            Comments                                    ###
##############################################################################
###   Diffraction pattern calculated by Match!. 
###   I/Ic calculated by Match!. 
##############################################################################


