##############################################################################
###               Entry exported from Match! User Database                 ###
##############################################################################
###                           Data published by:                           ###
###                                                                        ###
###               COD (Crystallography Open Database)
##############################################################################
#data_1521753
#_citation_journal_full    'Journal of the American Ceramic Society'
#_citation_journal_volume  '54'
#_citation_page_first  '531'
#_citation_page_last   '531'
#_citation_year  '1971'
#_citation_title  'X-ray diffraction powder pattern of metastable cubic Zr O2'
#loop_
#_publ_author_name
  #'Katz G.'
#_chemical_formula_sum  'O2 Zr'
#_chemical_name_common  'Zr O2'
#_symmetry_space_group_name_H-M 'F m -3 m'
#_space_group_IT_number 225
#_space_group_crystal_system 'cubic'
#loop_
#_symmetry_equiv_pos_as_xyz
   #'x, y, z'
   #'x+0.5, y+0.5, z'
   #'x+0.5, y, z+0.5'
   #'x, y+0.5, z+0.5'
   #'-y, x, z'
   #'-y+0.5, x+0.5, z'
   #'-y+0.5, x, z+0.5'
   #'-y, x+0.5, z+0.5'
   #'-x, -y, z'
   #'-x+0.5, -y+0.5, z'
   #'-x+0.5, -y, z+0.5'
   #'-x, -y+0.5, z+0.5'
   #'y, -x, z'
   #'y+0.5, -x+0.5, z'
   #'y+0.5, -x, z+0.5'
   #'y, -x+0.5, z+0.5'
   #'x, -z, y'
   #'x+0.5, -z+0.5, y'
   #'x+0.5, -z, y+0.5'
   #'x, -z+0.5, y+0.5'
   #'x, -y, -z'
   #'x+0.5, -y+0.5, -z'
   #'x+0.5, -y, -z+0.5'
   #'x, -y+0.5, -z+0.5'
   #'x, z, -y'
   #'x+0.5, z+0.5, -y'
   #'x+0.5, z, -y+0.5'
   #'x, z+0.5, -y+0.5'
   #'z, y, -x'
   #'z+0.5, y+0.5, -x'
   #'z+0.5, y, -x+0.5'
   #'z, y+0.5, -x+0.5'
   #'-x, y, -z'
   #'-x+0.5, y+0.5, -z'
   #'-x+0.5, y, -z+0.5'
   #'-x, y+0.5, -z+0.5'
   #'-z, y, x'
   #'-z+0.5, y+0.5, x'
   #'-z+0.5, y, x+0.5'
   #'-z, y+0.5, x+0.5'
   #'z, x, y'
   #'z+0.5, x+0.5, y'
   #'z+0.5, x, y+0.5'
   #'z, x+0.5, y+0.5'
   #'y, z, x'
   #'y+0.5, z+0.5, x'
   #'y+0.5, z, x+0.5'
   #'y, z+0.5, x+0.5'
   #'-y, -z, x'
   #'-y+0.5, -z+0.5, x'
   #'-y+0.5, -z, x+0.5'
   #'-y, -z+0.5, x+0.5'
   #'z, -x, -y'
   #'z+0.5, -x+0.5, -y'
   #'z+0.5, -x, -y+0.5'
   #'z, -x+0.5, -y+0.5'
   #'-y, z, -x'
   #'-y+0.5, z+0.5, -x'
   #'-y+0.5, z, -x+0.5'
   #'-y, z+0.5, -x+0.5'
   #'-z, -x, y'
   #'-z+0.5, -x+0.5, y'
   #'-z+0.5, -x, y+0.5'
   #'-z, -x+0.5, y+0.5'
   #'-z, x, -y'
   #'-z+0.5, x+0.5, -y'
   #'-z+0.5, x, -y+0.5'
   #'-z, x+0.5, -y+0.5'
   #'y, -z, -x'
   #'y+0.5, -z+0.5, -x'
   #'y+0.5, -z, -x+0.5'
   #'y, -z+0.5, -x+0.5'
   #'y, x, -z'
   #'y+0.5, x+0.5, -z'
   #'y+0.5, x, -z+0.5'
   #'y, x+0.5, -z+0.5'
   #'-y, -x, -z'
   #'-y+0.5, -x+0.5, -z'
   #'-y+0.5, -x, -z+0.5'
   #'-y, -x+0.5, -z+0.5'
   #'-x, z, y'
   #'-x+0.5, z+0.5, y'
   #'-x+0.5, z, y+0.5'
   #'-x, z+0.5, y+0.5'
   #'-x, -z, -y'
   #'-x+0.5, -z+0.5, -y'
   #'-x+0.5, -z, -y+0.5'
   #'-x, -z+0.5, -y+0.5'
   #'z, -y, x'
   #'z+0.5, -y+0.5, x'
   #'z+0.5, -y, x+0.5'
   #'z, -y+0.5, x+0.5'
   #'-z, -y, -x'
   #'-z+0.5, -y+0.5, -x'
   #'-z+0.5, -y, -x+0.5'
   #'-z, -y+0.5, -x+0.5'
   #'-x, -y, -z'
   #'-x+0.5, -y+0.5, -z'
   #'-x+0.5, -y, -z+0.5'
   #'-x, -y+0.5, -z+0.5'
   #'y, -x, -z'
   #'y+0.5, -x+0.5, -z'
   #'y+0.5, -x, -z+0.5'
   #'y, -x+0.5, -z+0.5'
   #'x, y, -z'
   #'x+0.5, y+0.5, -z'
   #'x+0.5, y, -z+0.5'
   #'x, y+0.5, -z+0.5'
   #'-y, x, -z'
   #'-y+0.5, x+0.5, -z'
   #'-y+0.5, x, -z+0.5'
   #'-y, x+0.5, -z+0.5'
   #'-x, z, -y'
   #'-x+0.5, z+0.5, -y'
   #'-x+0.5, z, -y+0.5'
   #'-x, z+0.5, -y+0.5'
   #'-x, y, z'
   #'-x+0.5, y+0.5, z'
   #'-x+0.5, y, z+0.5'
   #'-x, y+0.5, z+0.5'
   #'-x, -z, y'
   #'-x+0.5, -z+0.5, y'
   #'-x+0.5, -z, y+0.5'
   #'-x, -z+0.5, y+0.5'
   #'-z, -y, x'
   #'-z+0.5, -y+0.5, x'
   #'-z+0.5, -y, x+0.5'
   #'-z, -y+0.5, x+0.5'
   #'x, -y, z'
   #'x+0.5, -y+0.5, z'
   #'x+0.5, -y, z+0.5'
   #'x, -y+0.5, z+0.5'
   #'z, -y, -x'
   #'z+0.5, -y+0.5, -x'
   #'z+0.5, -y, -x+0.5'
   #'z, -y+0.5, -x+0.5'
   #'-z, -x, -y'
   #'-z+0.5, -x+0.5, -y'
   #'-z+0.5, -x, -y+0.5'
   #'-z, -x+0.5, -y+0.5'
   #'-y, -z, -x'
   #'-y+0.5, -z+0.5, -x'
   #'-y+0.5, -z, -x+0.5'
   #'-y, -z+0.5, -x+0.5'
   #'y, z, -x'
   #'y+0.5, z+0.5, -x'
   #'y+0.5, z, -x+0.5'
   #'y, z+0.5, -x+0.5'
   #'-z, x, y'
   #'-z+0.5, x+0.5, y'
   #'-z+0.5, x, y+0.5'
   #'-z, x+0.5, y+0.5'
   #'y, -z, x'
   #'y+0.5, -z+0.5, x'
   #'y+0.5, -z, x+0.5'
   #'y, -z+0.5, x+0.5'
   #'z, x, -y'
   #'z+0.5, x+0.5, -y'
   #'z+0.5, x, -y+0.5'
   #'z, x+0.5, -y+0.5'
   #'z, -x, y'
   #'z+0.5, -x+0.5, y'
   #'z+0.5, -x, y+0.5'
   #'z, -x+0.5, y+0.5'
   #'-y, z, x'
   #'-y+0.5, z+0.5, x'
   #'-y+0.5, z, x+0.5'
   #'-y, z+0.5, x+0.5'
   #'-y, -x, z'
   #'-y+0.5, -x+0.5, z'
   #'-y+0.5, -x, z+0.5'
   #'-y, -x+0.5, z+0.5'
   #'y, x, z'
   #'y+0.5, x+0.5, z'
   #'y+0.5, x, z+0.5'
   #'y, x+0.5, z+0.5'
   #'x, -z, -y'
   #'x+0.5, -z+0.5, -y'
   #'x+0.5, -z, -y+0.5'
   #'x, -z+0.5, -y+0.5'
   #'x, z, y'
   #'x+0.5, z+0.5, y'
   #'x+0.5, z, y+0.5'
   #'x, z+0.5, y+0.5'
   #'-z, y, -x'
   #'-z+0.5, y+0.5, -x'
   #'-z+0.5, y, -x+0.5'
   #'-z, y+0.5, -x+0.5'
   #'z, y, x'
   #'z+0.5, y+0.5, x'
   #'z+0.5, y, x+0.5'
   #'z, y+0.5, x+0.5'
#_cell_length_a        5.0900
#_cell_length_b        5.0900
#_cell_length_c        5.0900
#_cell_angle_alpha    90.000
#_cell_angle_beta     90.000
#_cell_angle_gamma    90.000
#_cell_formula_units_Z 4
#loop_
#_atom_site_label
#_atom_site_fract_x
#_atom_site_fract_y
#_atom_site_fract_z
#_atom_site_occupancy
#_atom_site_B_iso_or_equiv
#zr      0.000   0.000   0.000    1.00000    1.000
#o      0.250   0.250   0.250    1.00000    1.000
#_cell_measurement_wavelength    1.541874
#_cell_measurement_radiation   'x-rays'
#_exptl_crystal_density_diffrn    6.206000
#loop_
#_pd_peak_d_spacing
#_pd_peak_calc_intensity_net
     2.938713       1000.00
     2.545000        202.28
     1.799587        553.34
     1.534693        355.76
     1.469356         51.84
     1.272500         68.17
     1.167726        125.79
     1.138159         66.46
     1.038992        133.66
     0.979571        105.34
     0.899793         55.62
     0.860367        160.66
     0.848333         65.23
     0.804800        163.63
##############################################################################
###                            Comments                                    ###
##############################################################################
###   Diffraction pattern calculated by Match!. 
###   I/Ic calculated by Match!. 
##############################################################################


